6
Octahedral (Oh) configuration for LJ6 cluster, energy = -6.9370
1    0.000000    0.000000    0.000000
1    1.122462    0.000000    0.000000
1   -1.122462    0.000000    0.000000
1    0.000000    1.122462    0.000000
1    0.000000   -1.122462    0.000000
1    0.000000    0.000000    1.122462 